# vtk DataFile Version 3.0
2D scalar data
ASCII
DATASET STRUCTURED_GRID
DIMENSIONS 30 30 1
POINTS 900 float
0 0 0
0 0.344828 0
0 0.689655 0
0 1.03448 0
0 1.37931 0
0 1.72414 0
0 2.06897 0
0 2.41379 0
0 2.75862 0
0 3.10345 0
0 3.44828 -0
0 3.7931 -0
0 4.13793 -0
0 4.48276 -0
0 4.82759 -0
0 5.17241 -0
0 5.51724 -0
0 5.86207 -0
0 6.2069 -0
0 6.55172 0
0 6.89655 0
0 7.24138 0
0 7.58621 0
0 7.93103 0
0 8.27586 0
0 8.62069 0
0 8.96552 0
0 9.31034 0
0 9.65517 -0
0 10 -0
0.344828 0 0
0.344828 0.344828 0.114267
0.344828 0.689655 0.215082
0.344828 1.03448 0.290574
0.344828 1.37931 0.331856
0.344828 1.72414 0.334068
0.344828 2.06897 0.296949
0.344828 2.41379 0.22487
0.344828 2.75862 0.126316
0.344828 3.10345 0.012891
0.344828 3.44828 -0.102052
0.344828 3.7931 -0.20498
0.344828 4.13793 -0.283775
0.344828 4.48276 -0.329161
0.344828 4.82759 -0.335794
0.344828 5.17241 -0.302893
0.344828 5.51724 -0.234331
0.344828 5.86207 -0.138182
0.344828 6.2069 -0.0257632
0.344828 6.55172 0.0896883
0.344828 6.89655 0.194581
0.344828 7.24138 0.276564
0.344828 7.58621 0.325988
0.344828 7.93103 0.337031
0.344828 8.27586 0.308396
0.344828 8.62069 0.243452
0.344828 8.96552 0.149846
0.344828 9.31034 0.038598
0.344828 9.65517 -0.0771941
0.344828 10 -0.183898
0.689655 0 0
0.689655 0.344828 0.215082
0.689655 0.689655 0.404841
0.689655 1.03448 0.546938
0.689655 1.37931 0.624642
0.689655 1.72414 0.628805
0.689655 2.06897 0.558938
0.689655 2.41379 0.423266
0.689655 2.75862 0.237761
0.689655 3.10345 0.0242643
0.689655 3.44828 -0.192089
0.689655 3.7931 -0.385827
0.689655 4.13793 -0.534141
0.689655 4.48276 -0.619569
0.689655 4.82759 -0.632054
0.689655 5.17241 -0.570125
0.689655 5.51724 -0.441074
0.689655 5.86207 -0.260095
0.689655 6.2069 -0.0484933
0.689655 6.55172 0.168817
0.689655 6.89655 0.366253
0.689655 7.24138 0.520568
0.689655 7.58621 0.613596
0.689655 7.93103 0.634383
0.689655 8.27586 0.580483
0.689655 8.62069 0.458242
0.689655 8.96552 0.28205
0.689655 9.31034 0.0726517
0.689655 9.65517 -0.1453
0.689655 10 -0.346145
1.03448 0 0
1.03448 0.344828 0.290574
1.03448 0.689655 0.546938
1.03448 1.03448 0.738909
1.03448 1.37931 0.843887
1.03448 1.72414 0.849512
1.03448 2.06897 0.755122
1.03448 2.41379 0.571829
1.03448 2.75862 0.321214
1.03448 3.10345 0.0327809
1.03448 3.44828 -0.259511
1.03448 3.7931 -0.52125
1.03448 4.13793 -0.721621
1.03448 4.48276 -0.837034
1.03448 4.82759 -0.853901
1.03448 5.17241 -0.770236
1.03448 5.51724 -0.595889
1.03448 5.86207 -0.351386
1.03448 6.2069 -0.0655141
1.03448 6.55172 0.228071
1.03448 6.89655 0.494805
1.03448 7.24138 0.703284
1.03448 7.58621 0.828964
1.03448 7.93103 0.857048
1.03448 8.27586 0.784229
1.03448 8.62069 0.619081
1.03448 8.96552 0.381047
1.03448 9.31034 0.098152
1.03448 9.65517 -0.196299
1.03448 10 -0.46764
1.37931 0 0
1.37931 0.344828 0.331856
1.37931 0.689655 0.624642
1.37931 1.03448 0.843887
1.37931 1.37931 0.963779
1.37931 1.72414 0.970203
1.37931 2.06897 0.862403
1.37931 2.41379 0.65307
1.37931 2.75862 0.366849
1.37931 3.10345 0.0374381
1.37931 3.44828 -0.29638
1.37931 3.7931 -0.595305
1.37931 4.13793 -0.824143
1.37931 4.48276 -0.955953
1.37931 4.82759 -0.975216
1.37931 5.17241 -0.879664
1.37931 5.51724 -0.680547
1.37931 5.86207 -0.401308
1.37931 6.2069 -0.0748218
1.37931 6.55172 0.260473
1.37931 6.89655 0.565103
1.37931 7.24138 0.803201
1.37931 7.58621 0.946736
1.37931 7.93103 0.97881
1.37931 8.27586 0.895646
1.37931 8.62069 0.707035
1.37931 8.96552 0.435183
1.37931 9.31034 0.112097
1.37931 9.65517 -0.224188
1.37931 10 -0.534078
1.72414 0 0
1.72414 0.344828 0.334068
1.72414 0.689655 0.628805
1.72414 1.03448 0.849512
1.72414 1.37931 0.970203
1.72414 1.72414 0.97667
1.72414 2.06897 0.868151
1.72414 2.41379 0.657423
1.72414 2.75862 0.369294
1.72414 3.10345 0.0376877
1.72414 3.44828 -0.298356
1.72414 3.7931 -0.599273
1.72414 4.13793 -0.829637
1.72414 4.48276 -0.962325
1.72414 4.82759 -0.981716
1.72414 5.17241 -0.885528
1.72414 5.51724 -0.685084
1.72414 5.86207 -0.403983
1.72414 6.2069 -0.0753205
1.72414 6.55172 0.26221
1.72414 6.89655 0.568869
1.72414 7.24138 0.808554
1.72414 7.58621 0.953046
1.72414 7.93103 0.985334
1.72414 8.27586 0.901616
1.72414 8.62069 0.711748
1.72414 8.96552 0.438084
1.72414 9.31034 0.112844
1.72414 9.65517 -0.225682
1.72414 10 -0.537638
2.06897 0 0
2.06897 0.344828 0.296949
2.06897 0.689655 0.558938
2.06897 1.03448 0.755122
2.06897 1.37931 0.862403
2.06897 1.72414 0.868151
2.06897 2.06897 0.77169
2.06897 2.41379 0.584376
2.06897 2.75862 0.328261
2.06897 3.10345 0.0335001
2.06897 3.44828 -0.265205
2.06897 3.7931 -0.532687
2.06897 4.13793 -0.737455
2.06897 4.48276 -0.8554
2.06897 4.82759 -0.872637
2.06897 5.17241 -0.787136
2.06897 5.51724 -0.608963
2.06897 5.86207 -0.359096
2.06897 6.2069 -0.0669515
2.06897 6.55172 0.233075
2.06897 6.89655 0.505662
2.06897 7.24138 0.718715
2.06897 7.58621 0.847152
2.06897 7.93103 0.875852
2.06897 8.27586 0.801436
2.06897 8.62069 0.632665
2.06897 8.96552 0.389408
2.06897 9.31034 0.100306
2.06897 9.65517 -0.200606
2.06897 10 -0.4779
2.41379 0 0
2.41379 0.344828 0.22487
2.41379 0.689655 0.423266
2.41379 1.03448 0.571829
2.41379 1.37931 0.65307
2.41379 1.72414 0.657423
2.41379 2.06897 0.584376
2.41379 2.41379 0.442529
2.41379 2.75862 0.248582
2.41379 3.10345 0.0253686
2.41379 3.44828 -0.200831
2.41379 3.7931 -0.403387
2.41379 4.13793 -0.55845
2.41379 4.48276 -0.647766
2.41379 4.82759 -0.660819
2.41379 5.17241 -0.596072
2.41379 5.51724 -0.461148
2.41379 5.86207 -0.271932
2.41379 6.2069 -0.0507002
2.41379 6.55172 0.1765
2.41379 6.89655 0.382921
2.41379 7.24138 0.54426
2.41379 7.58621 0.641521
2.41379 7.93103 0.663255
2.41379 8.27586 0.606901
2.41379 8.62069 0.479096
2.41379 8.96552 0.294886
2.41379 9.31034 0.0759581
2.41379 9.65517 -0.151913
2.41379 10 -0.361898
2.75862 0 0
2.75862 0.344828 0.126316
2.75862 0.689655 0.237761
2.75862 1.03448 0.321214
2.75862 1.37931 0.366849
2.75862 1.72414 0.369294
2.75862 2.06897 0.328261
2.75862 2.41379 0.248582
2.75862 2.75862 0.139636
2.75862 3.10345 0.0142503
2.75862 3.44828 -0.112813
2.75862 3.7931 -0.226594
2.75862 4.13793 -0.313698
2.75862 4.48276 -0.36387
2.75862 4.82759 -0.371202
2.75862 5.17241 -0.334832
2.75862 5.51724 -0.259041
2.75862 5.86207 -0.152752
2.75862 6.2069 -0.0284798
2.75862 6.55172 0.0991455
2.75862 6.89655 0.215098
2.75862 7.24138 0.305727
2.75862 7.58621 0.360362
2.75862 7.93103 0.37257
2.75862 8.27586 0.340915
2.75862 8.62069 0.269123
2.75862 8.96552 0.165646
2.75862 9.31034 0.042668
2.75862 9.65517 -0.0853339
2.75862 10 -0.203289
3.10345 0 0
3.10345 0.344828 0.012891
3.10345 0.689655 0.0242643
3.10345 1.03448 0.0327809
3.10345 1.37931 0.0374381
3.10345 1.72414 0.0376877
3.10345 2.06897 0.0335001
3.10345 2.41379 0.0253686
3.10345 2.75862 0.0142503
3.10345 3.10345 0.00145429
3.10345 3.44828 -0.0115129
3.10345 3.7931 -0.0231247
3.10345 4.13793 -0.0320139
3.10345 4.48276 -0.0371341
3.10345 4.82759 -0.0378824
3.10345 5.17241 -0.0341707
3.10345 5.51724 -0.0264359
3.10345 5.86207 -0.0155889
3.10345 6.2069 -0.00290646
3.10345 6.55172 0.0101181
3.10345 6.89655 0.0219515
3.10345 7.24138 0.0312004
3.10345 7.58621 0.0367761
3.10345 7.93103 0.038022
3.10345 8.27586 0.0347915
3.10345 8.62069 0.0274649
3.10345 8.96552 0.0169048
3.10345 9.31034 0.0043544
3.10345 9.65517 -0.0087086
3.10345 10 -0.0207463
3.44828 0 -0
3.44828 0.344828 -0.102052
3.44828 0.689655 -0.192089
3.44828 1.03448 -0.259511
3.44828 1.37931 -0.29638
3.44828 1.72414 -0.298356
3.44828 2.06897 -0.265205
3.44828 2.41379 -0.200831
3.44828 2.75862 -0.112813
3.44828 3.10345 -0.0115129
3.44828 3.44828 0.0911426
3.44828 3.7931 0.183068
3.44828 4.13793 0.25344
3.44828 4.48276 0.293974
3.44828 4.82759 0.299897
3.44828 5.17241 0.270513
3.44828 5.51724 0.209281
3.44828 5.86207 0.12341
3.44828 6.2069 0.0230091
3.44828 6.55172 -0.0801005
3.44828 6.89655 -0.17378
3.44828 7.24138 -0.246999
3.44828 7.58621 -0.291139
3.44828 7.93103 -0.301003
3.44828 8.27586 -0.275428
3.44828 8.62069 -0.217427
3.44828 8.96552 -0.133827
3.44828 9.31034 -0.0344718
3.44828 9.65517 0.068942
3.44828 10 0.164239
3.7931 0 -0
3.7931 0.344828 -0.20498
3.7931 0.689655 -0.385827
3.7931 1.03448 -0.52125
3.7931 1.37931 -0.595305
3.7931 1.72414 -0.599273
3.7931 2.06897 -0.532687
3.7931 2.41379 -0.403387
3.7931 2.75862 -0.226594
3.7931 3.10345 -0.0231247
3.7931 3.44828 0.183068
3.7931 3.7931 0.367707
3.7931 4.13793 0.509055
3.7931 4.48276 0.590471
3.7931 4.82759 0.602369
3.7931 5.17241 0.543349
3.7931 5.51724 0.420359
3.7931 5.86207 0.247879
3.7931 6.2069 0.0462158
3.7931 6.55172 -0.160889
3.7931 6.89655 -0.349051
3.7931 7.24138 -0.496119
3.7931 7.58621 -0.584778
3.7931 7.93103 -0.604589
3.7931 8.27586 -0.553221
3.7931 8.62069 -0.43672
3.7931 8.96552 -0.268803
3.7931 9.31034 -0.0692396
3.7931 9.65517 0.138476
3.7931 10 0.329888
4.13793 0 -0
4.13793 0.344828 -0.283775
4.13793 0.689655 -0.534141
4.13793 1.03448 -0.721621
4.13793 1.37931 -0.824143
4.13793 1.72414 -0.829637
4.13793 2.06897 -0.737455
4.13793 2.41379 -0.55845
4.13793 2.75862 -0.313698
4.13793 3.10345 -0.0320139
4.13793 3.44828 0.25344
4.13793 3.7931 0.509055
4.13793 4.13793 0.704738
4.13793 4.48276 0.817451
4.13793 4.82759 0.833923
4.13793 5.17241 0.752215
4.13793 5.51724 0.581947
4.13793 5.86207 0.343165
4.13793 6.2069 0.0639813
4.13793 6.55172 -0.222735
4.13793 6.89655 -0.483228
4.13793 7.24138 -0.68683
4.13793 7.58621 -0.809569
4.13793 7.93103 -0.836996
4.13793 8.27586 -0.765881
4.13793 8.62069 -0.604597
4.13793 8.96552 -0.372132
4.13793 9.31034 -0.0958556
4.13793 9.65517 0.191707
4.13793 10 0.456699
4.48276 0 -0
4.48276 0.344828 -0.329161
4.48276 0.689655 -0.619569
4.48276 1.03448 -0.837034
4.48276 1.37931 -0.955953
4.48276 1.72414 -0.962325
4.48276 2.06897 -0.8554
4.48276 2.41379 -0.647766
4.48276 2.75862 -0.36387
4.48276 3.10345 -0.0371341
4.48276 3.44828 0.293974
4.48276 3.7931 0.590471
4.48276 4.13793 0.817451
4.48276 4.48276 0.94819
4.48276 4.82759 0.967297
4.48276 5.17241 0.872521
4.48276 5.51724 0.675021
4.48276 5.86207 0.398049
4.48276 6.2069 0.0742142
4.48276 6.55172 -0.258358
4.48276 6.89655 -0.560514
[...]
POINT_DATA 900
SCALARS height float 1
LOOKUP_TABLE default
0
0
0
0
0
0
0
0
0
0
-0
-0
-0
-0
-0
-0
-0
-0
-0
0
0
0
0
0
0
0
0
0
-0
-0
0
0.114267
0.215082
0.290574
0.331856
0.334068
0.296949
0.22487
0.126316
0.012891
-0.102052
-0.20498
-0.283775
-0.329161
-0.335794
-0.302893
-0.234331
-0.138182
-0.0257632
0.0896883
0.194581
0.276564
0.325988
0.337031
0.308396
0.243452
0.149846
0.038598
-0.0771941
-0.183898
0
0.215082
0.404841
0.546938
0.624642
0.628805
0.558938
0.423266
0.237761
0.0242643
-0.192089
-0.385827
-0.534141
-0.619569
-0.632054
-0.570125
-0.441074
-0.260095
-0.0484933
0.168817
0.366253
0.520568
0.613596
0.634383
0.580483
0.458242
0.28205
0.0726517
-0.1453
-0.346145
0
0.290574
0.546938
0.738909
0.843887
0.849512
0.755122
0.571829
0.321214
0.0327809
-0.259511
-0.52125
-0.721621
-0.837034
-0.853901
-0.770236
-0.595889
-0.351386
-0.0655141
0.228071
0.494805
0.703284
0.828964
0.857048
0.784229
0.619081
0.381047
0.098152
-0.196299
-0.46764
0
0.331856
0.624642
0.843887
0.963779
0.970203
0.862403
0.65307
0.366849
0.0374381
-0.29638
-0.595305
-0.824143
-0.955953
-0.975216
-0.879664
-0.680547
-0.401308
-0.0748218
0.260473
0.565103
0.803201
0.946736
0.97881
0.895646
0.707035
0.435183
0.112097
-0.224188
-0.534078
0
0.334068
0.628805
0.849512
0.970203
0.97667
0.868151
0.657423
0.369294
0.0376877
-0.298356
-0.599273
-0.829637
-0.962325
-0.981716
-0.885528
-0.685084
-0.403983
-0.0753205
0.26221
0.568869
0.808554
0.953046
0.985334
0.901616
0.711748
0.438084
0.112844
-0.225682
-0.537638
0
0.296949
0.558938
0.755122
0.862403
0.868151
0.77169
0.584376
0.328261
0.0335001
-0.265205
-0.532687
-0.737455
-0.8554
-0.872637
-0.787136
-0.608963
-0.359096
-0.0669515
0.233075
0.505662
0.718715
0.847152
0.875852
0.801436
0.632665
0.389408
0.100306
-0.200606
-0.4779
0
0.22487
0.423266
0.571829
0.65307
0.657423
0.584376
0.442529
0.248582
0.0253686
-0.200831
-0.403387
-0.55845
-0.647766
-0.660819
-0.596072
-0.461148
-0.271932
-0.0507002
0.1765
0.382921
0.54426
0.641521
0.663255
0.606901
0.479096
0.294886
0.0759581
-0.151913
-0.361898
0
0.126316
0.237761
0.321214
0.366849
0.369294
0.328261
0.248582
0.139636
0.0142503
-0.112813
-0.226594
-0.313698
-0.36387
-0.371202
-0.334832
-0.259041
-0.152752
-0.0284798
0.0991455
0.215098
0.305727
0.360362
0.37257
0.340915
0.269123
0.165646
0.042668
-0.0853339
-0.203289
0
0.012891
0.0242643
0.0327809
0.0374381
0.0376877
0.0335001
0.0253686
0.0142503
0.00145429
-0.0115129
-0.0231247
-0.0320139
-0.0371341
-0.0378824
-0.0341707
-0.0264359
-0.0155889
-0.00290646
0.0101181
0.0219515
0.0312004
0.0367761
0.038022
0.0347915
0.0274649
0.0169048
0.0043544
-0.0087086
-0.0207463
-0
-0.102052
-0.192089
-0.259511
-0.29638
-0.298356
-0.265205
-0.200831
-0.112813
-0.0115129
0.0911426
0.183068
0.25344
0.293974
0.299897
0.270513
0.209281
0.12341
0.0230091
-0.0801005
-0.17378
-0.246999
-0.291139
-0.301003
-0.275428
-0.217427
-0.133827
-0.0344718
0.068942
0.164239
-0
-0.20498
-0.385827
-0.52125
-0.595305
-0.599273
-0.532687
-0.403387
-0.226594
-0.0231247
0.183068
0.367707
0.509055
0.590471
0.602369
0.543349
0.420359
0.247879
0.0462158
-0.160889
-0.349051
-0.496119
-0.584778
-0.604589
-0.553221
-0.43672
-0.268803
-0.0692396
0.138476
0.329888
-0
-0.283775
-0.534141
-0.721621
-0.824143
-0.829637
-0.737455
-0.55845
-0.313698
-0.0320139
0.25344
0.509055
0.704738
0.817451
0.833923
0.752215
0.581947
0.343165
0.0639813
-0.222735
-0.483228
-0.68683
-0.809569
-0.836996
-0.765881
-0.604597
-0.372132
-0.0958556
0.191707
0.456699
-0
-0.329161
-0.619569
-0.837034
-0.955953
-0.962325
-0.8554
-0.647766
-0.36387
-0.0371341
0.293974
0.590471
0.817451
0.94819
0.967297
0.872521
0.675021
0.398049
0.0742142
-0.258358
-0.560514
-0.796678
-0.939048
-0.970861
-0.888373
-0.701294
-0.43165
-0.111186
0.222367
0.529741
-0
-0.335794
-0.632054
-0.853901
-0.975216
-0.981716
-0.872637
-0.660819
-0.371202
-0.0378824
0.299897
0.602369
0.833923
0.967297
0.986788
0.890103
0.688623
0.40607
0.0757096
-0.263564
-0.571808
-0.812732
-0.95797
-0.990425
-0.906274
-0.715425
-0.440348
-0.113427
0.226848
0.540415
-0
-0.302893
-0.570125
-0.770236
-0.879664
-0.885528
-0.787136
-0.596072
-0.334832
-0.0341707
0.270513
0.543349
0.752215
0.872521
0.890103
0.80289
0.621152
0.366283
0.0682916
-0.23774
-0.515783
-0.7331
-0.864108
-0.893383
-0.817477
-0.645328
-0.397202
-0.102313
0.204621
0.487465
-0
-0.234331
-0.441074
-0.595889
-0.680547
-0.685084
-0.608963
-0.461148
-0.259041
-0.0264359
0.209281
0.420359
0.581947
0.675021
0.688623
0.621152
0.480551
0.283373
0.0528334
-0.183927
-0.399032
-0.567159
-0.668513
-0.691161
-0.632437
-0.499254
-0.307293
-0.079154
0.158304
0.377125
-0
-0.138182
-0.260095
-0.351386
-0.401308
-0.403983
-0.359096
-0.271932
-0.152752
-0.0155889
0.12341
0.247879
0.343165
0.398049
0.40607
0.366283
0.283373
0.167101
0.031155
-0.108459
-0.235303
-0.334445
-0.394211
-0.407567
-0.372938
-0.294402
-0.181206
-0.0466759
0.0933495
0.222385
-0
-0.0257632
-0.0484933
-0.0655141
-0.0748218
-0.0753205
-0.0669515
-0.0507002
-0.0284798
-0.00290646
0.0230091
0.0462158
0.0639813
0.0742142
0.0757096
0.0682916
0.0528334
0.031155
0.00580869
-0.0202215
-0.043871
-0.0623555
-0.0734986
-0.0759886
-0.0695323
-0.0548898
-0.0337849
-0.00870247
0.0174045
0.0414624
0
0.0896883
0.168817
0.228071
0.260473
0.26221
0.233075
0.1765
0.0991455
0.0101181
-0.0801005
-0.160889
-0.222735
-0.258358
-0.263564
-0.23774
-0.183927
-0.108459
-0.0202215
0.0703963
0.152726
0.217075
0.255867
0.264536
0.24206
0.191085
0.117614
0.0302955
-0.0605896
-0.144341
0
0.194581
0.366253
0.494805
0.565103
0.568869
0.505662
0.382921
0.215098
0.0219515
-0.17378
-0.349051
-0.483228
-0.560514
-0.571808
-0.515783
-0.399032
-0.235303
-0.043871
0.152726
0.331342
0.470949
0.555109
0.573916
0.525153
0.414563
0.255166
0.0657267
-0.13145
-0.313151
0
0.276564
0.520568
0.703284
0.803201
0.808554
0.718715
0.54426
0.305727
0.0312004
-0.246999
-0.496119
-0.68683
-0.796678
-0.812732
-0.7331
-0.567159
-0.334445
-0.0623555
0.217075
0.470949
0.669377
0.788997
0.815727
0.746419
0.589234
0.362676
0.0934198
-0.186835
-0.445093
0
0.325988
0.613596
0.828964
0.946736
0.953046
0.847152
0.641521
0.360362
0.0367761
-0.291139
-0.584778
-0.809569
-0.939048
-0.95797
-0.864108
-0.668513
-0.394211
-0.0734986
0.255867
0.555109
0.788997
0.929994
0.961501
0.879807
0.694532
0.427488
0.110114
-0.220223
-0.524633
0
0.337031
0.634383
0.857048
0.97881
0.985334
0.875852
0.663255
0.37257
0.038022
-0.301003
-0.604589
-0.836996
-0.970861
-0.990425
-0.893383
-0.691161
-0.407567
-0.0759886
0.264536
0.573916
0.815727
0.961501
0.994075
0.909614
0.718062
0.44197
0.113845
-0.227684
-0.542407
0
0.308396
0.580483
0.784229
0.895646
0.901616
0.801436
0.606901
0.340915
0.0347915
-0.275428
-0.553221
-0.765881
-0.888373
-0.906274
-0.817477
-0.632437
-0.372938
-0.0695323
0.24206
0.525153
0.746419
0.879807
0.909614
0.832329
0.657052
0.404419
0.104172
-0.208339
-0.496322
0
0.243452
0.458242
0.619081
0.707035
0.711748
0.632665
0.479096
0.269123
0.0274649
-0.217427
-0.43672
-0.604597
-0.701294
-0.715425
-0.645328
-0.499254
-0.294402
-0.0548898
0.191085
0.414563
0.589234
0.694532
0.718062
0.657052
0.518686
0.319254
0.0822348
-0.164466
-0.391803
0
0.149846
0.28205
0.381047
0.435183
0.438084
0.389408
0.294886
0.165646
0.0169048
-0.133827
-0.268803
-0.372132
-0.43165
-0.440348
-0.397202
-0.307293
-0.181206
-0.0337849
0.117614
0.255166
0.362676
0.427488
0.44197
0.404419
0.319254
0.196502
0.0506159
-0.101229
-0.241157
0
0.038598
0.0726517
0.098152
0.112097
0.112844
0.100306
0.0759581
0.042668
0.0043544
-0.0344718
-0.0692396
-0.0958556
-0.111186
-0.113427
-0.102313
-0.079154
-0.0466759
-0.00870247
0.0302955
0.0657267
0.0934198
0.110114
0.113845
0.104172
0.0822348
0.0506159
0.0130379
-0.0260751
-0.0621183
-0
-0.0771941
-0.1453
-0.196299
-0.224188
-0.225682
-0.200606
-0.151913
-0.0853339
-0.0087086
0.068942
0.138476
0.191707
0.222367
0.226848
0.204621
0.158304
0.0933495
0.0174045
-0.0605896
-0.13145
-0.186835
-0.220223
-0.227684
-0.208339
-0.164466
-0.101229
-0.0260751
0.052149
0.124234
-0
-0.183898
-0.346145
-0.46764
-0.534078
-0.537638
-0.4779
-0.361898
-0.203289
-0.0207463
0.164239
0.329888
0.456699
0.529741
0.540415
0.487465
0.377125
0.222385
0.0414624
-0.144341
-0.313151
-0.445093
-0.524633
-0.542407
-0.496322
-0.391803
-0.241157
-0.0621183
0.124234
0.295959
