# vtk DataFile Version 3.0
2D scalar data
ASCII
DATASET STRUCTURED_GRID
DIMENSIONS 30 30 1
POINTS 900 float
0 0 0
0 0.344828 0
0 0.689655 0
0 1.03448 0
0 1.37931 0
0 1.72414 0
0 2.06897 0
0 2.41379 0
0 2.75862 0
0 3.10345 0
0 3.44828 0
0 3.7931 0
0 4.13793 0
0 4.48276 0
0 4.82759 0
0 5.17241 0
0 5.51724 0
0 5.86207 0
0 6.2069 0
0 6.55172 0
0 6.89655 0
0 7.24138 0
0 7.58621 0
0 7.93103 0
0 8.27586 0
0 8.62069 0
0 8.96552 0
0 9.31034 0
0 9.65517 0
0 10 0
0.344828 0 0
0.344828 0.344828 0
0.344828 0.689655 0
0.344828 1.03448 0
0.344828 1.37931 0
0.344828 1.72414 0
0.344828 2.06897 0
0.344828 2.41379 0
0.344828 2.75862 0
0.344828 3.10345 0
0.344828 3.44828 0
0.344828 3.7931 0
0.344828 4.13793 0
0.344828 4.48276 0
0.344828 4.82759 0
0.344828 5.17241 0
0.344828 5.51724 0
0.344828 5.86207 0
0.344828 6.2069 0
0.344828 6.55172 0
0.344828 6.89655 0
0.344828 7.24138 0
0.344828 7.58621 0
0.344828 7.93103 0
0.344828 8.27586 0
0.344828 8.62069 0
0.344828 8.96552 0
0.344828 9.31034 0
0.344828 9.65517 0
0.344828 10 0
0.689655 0 0
0.689655 0.344828 0
0.689655 0.689655 0
0.689655 1.03448 0
0.689655 1.37931 0
0.689655 1.72414 0
0.689655 2.06897 0
0.689655 2.41379 0
0.689655 2.75862 0
0.689655 3.10345 0
0.689655 3.44828 0
0.689655 3.7931 0
0.689655 4.13793 0
0.689655 4.48276 0
0.689655 4.82759 0
0.689655 5.17241 0
0.689655 5.51724 0
0.689655 5.86207 0
0.689655 6.2069 0
0.689655 6.55172 0
0.689655 6.89655 0
0.689655 7.24138 0
0.689655 7.58621 0
0.689655 7.93103 0
0.689655 8.27586 0
0.689655 8.62069 0
0.689655 8.96552 0
0.689655 9.31034 0
0.689655 9.65517 0
0.689655 10 0
1.03448 0 0
1.03448 0.344828 0
1.03448 0.689655 0
1.03448 1.03448 -1.46323
1.03448 1.37931 -1.67112
1.03448 1.72414 -1.68225
1.03448 2.06897 -1.49534
1.03448 2.41379 -1.13237
1.03448 2.75862 -0.636087
1.03448 3.10345 -0.0649147
1.03448 3.44828 0.5139
1.03448 3.7931 1.03221
1.03448 4.13793 1.429
1.03448 4.48276 1.65755
1.03448 4.82759 1.69095
1.03448 5.17241 1.52527
1.03448 5.51724 1.18001
1.03448 5.86207 0.695836
1.03448 6.2069 0.129735
1.03448 6.55172 -0.45164
1.03448 6.89655 -0.979843
1.03448 7.24138 -1.39269
1.03448 7.58621 -1.64156
1.03448 7.93103 -1.69718
1.03448 8.27586 -1.55298
1.03448 8.62069 -1.22594
1.03448 8.96552 -0.754573
1.03448 9.31034 0
1.03448 9.65517 0
1.03448 10 0
1.37931 0 0
1.37931 0.344828 0
1.37931 0.689655 0
1.37931 1.03448 -1.67112
1.37931 1.37931 -1.90853
1.37931 1.72414 -1.92126
1.37931 2.06897 -1.70778
1.37931 2.41379 -1.29325
1.37931 2.75862 -0.726456
1.37931 3.10345 -0.0741372
1.37931 3.44828 0.58691
1.37931 3.7931 1.17886
1.37931 4.13793 1.63202
1.37931 4.48276 1.89304
1.37931 4.82759 1.93118
1.37931 5.17241 1.74196
1.37931 5.51724 1.34766
1.37931 5.86207 0.794695
1.37931 6.2069 0.148167
1.37931 6.55172 -0.515805
1.37931 6.89655 -1.11905
1.37931 7.24138 -1.59055
1.37931 7.58621 -1.87478
1.37931 7.93103 -1.9383
1.37931 8.27586 -1.77361
1.37931 8.62069 -1.40011
1.37931 8.96552 -0.861777
1.37931 9.31034 0
1.37931 9.65517 0
1.37931 10 0
1.72414 0 0
1.72414 0.344828 0
1.72414 0.689655 0
1.72414 1.03448 -1.68225
1.72414 1.37931 -1.92126
1.72414 1.72414 -1.93406
1.72414 2.06897 -1.71917
1.72414 2.41379 -1.30187
1.72414 2.75862 -0.731299
1.72414 3.10345 -0.0746314
1.72414 3.44828 0.590822
1.72414 3.7931 1.18672
1.72414 4.13793 1.6429
1.72414 4.48276 1.90565
1.72414 4.82759 1.94405
1.72414 5.17241 1.75358
1.72414 5.51724 1.35664
1.72414 5.86207 0.799992
1.72414 6.2069 0.149154
1.72414 6.55172 -0.519244
1.72414 6.89655 -1.12651
1.72414 7.24138 -1.60115
1.72414 7.58621 -1.88728
1.72414 7.93103 -1.95122
1.72414 8.27586 -1.78543
1.72414 8.62069 -1.40945
1.72414 8.96552 -0.867521
1.72414 9.31034 0
1.72414 9.65517 0
1.72414 10 0
2.06897 0 0
2.06897 0.344828 0
2.06897 0.689655 0
2.06897 1.03448 -1.49534
2.06897 1.37931 -1.70778
2.06897 1.72414 -1.71917
2.06897 2.06897 -1.52815
2.06897 2.41379 -1.15722
2.06897 2.75862 -0.650043
2.06897 3.10345 -0.066339
2.06897 3.44828 0.525175
2.06897 3.7931 1.05486
2.06897 4.13793 1.46035
2.06897 4.48276 1.69391
2.06897 4.82759 1.72805
2.06897 5.17241 1.55873
2.06897 5.51724 1.20591
2.06897 5.86207 0.711104
2.06897 6.2069 0.132582
2.06897 6.55172 -0.46155
2.06897 6.89655 -1.00134
2.06897 7.24138 -1.42324
2.06897 7.58621 -1.67758
2.06897 7.93103 -1.73442
2.06897 8.27586 -1.58705
2.06897 8.62069 -1.25284
2.06897 8.96552 -0.77113
2.06897 9.31034 0
2.06897 9.65517 0
2.06897 10 0
2.41379 0 0
2.41379 0.344828 0
2.41379 0.689655 0
2.41379 1.03448 -1.13237
2.41379 1.37931 -1.29325
2.41379 1.72414 -1.30187
2.41379 2.06897 -1.15722
2.41379 2.41379 -0.876322
2.41379 2.75862 -0.492257
2.41379 3.10345 -0.0502364
2.41379 3.44828 0.397698
2.41379 3.7931 0.798811
2.41379 4.13793 1.10588
2.41379 4.48276 1.28275
2.41379 4.82759 1.30859
2.41379 5.17241 1.18038
2.41379 5.51724 0.913193
2.41379 5.86207 0.538496
2.41379 6.2069 0.1004
2.41379 6.55172 -0.349517
2.41379 6.89655 -0.758283
2.41379 7.24138 -1.07778
2.41379 7.58621 -1.27038
2.41379 7.93103 -1.31342
2.41379 8.27586 -1.20182
2.41379 8.62069 -0.948736
2.41379 8.96552 -0.583951
2.41379 9.31034 0
2.41379 9.65517 0
2.41379 10 0
2.75862 0 0
2.75862 0.344828 0
2.75862 0.689655 0
2.75862 1.03448 -0.636087
2.75862 1.37931 -0.726456
2.75862 1.72414 -0.731299
2.75862 2.06897 -0.650043
2.75862 2.41379 -0.492257
2.75862 2.75862 -0.276515
2.75862 3.10345 -0.0282193
2.75862 3.44828 0.223399
2.75862 3.7931 0.448716
2.75862 4.13793 0.621205
2.75862 4.48276 0.720557
2.75862 4.82759 0.735077
2.75862 5.17241 0.663054
2.75862 5.51724 0.512968
2.75862 5.86207 0.302489
2.75862 6.2069 0.0563975
2.75862 6.55172 -0.196334
2.75862 6.89655 -0.425951
2.75862 7.24138 -0.605419
2.75862 7.58621 -0.71361
2.75862 7.93103 -0.737786
2.75862 8.27586 -0.6751
2.75862 8.62069 -0.532933
2.75862 8.96552 -0.328023
2.75862 9.31034 0
2.75862 9.65517 0
2.75862 10 0
3.10345 0 0
3.10345 0.344828 0
3.10345 0.689655 0
3.10345 1.03448 -0.0649147
3.10345 1.37931 -0.0741372
3.10345 1.72414 -0.0746314
3.10345 2.06897 -0.066339
3.10345 2.41379 -0.0502364
3.10345 2.75862 -0.0282193
3.10345 3.10345 -0.00287987
3.10345 3.44828 0.0227986
3.10345 3.7931 0.0457929
3.10345 4.13793 0.063396
3.10345 4.48276 0.0735352
3.10345 4.82759 0.075017
3.10345 5.17241 0.0676668
3.10345 5.51724 0.0523501
3.10345 5.86207 0.03087
3.10345 6.2069 0.00575555
3.10345 6.55172 -0.0200365
3.10345 6.89655 -0.0434696
3.10345 7.24138 -0.061785
3.10345 7.58621 -0.0728262
3.10345 7.93103 -0.0752934
3.10345 8.27586 -0.0688962
3.10345 8.62069 -0.0543876
3.10345 8.96552 -0.0334758
3.10345 9.31034 0
3.10345 9.65517 0
3.10345 10 0
3.44828 0 0
3.44828 0.344828 0
3.44828 0.689655 0
3.44828 1.03448 0.5139
3.44828 1.37931 0.58691
3.44828 1.72414 0.590822
3.44828 2.06897 0.525175
3.44828 2.41379 0.397698
3.44828 2.75862 0.223399
3.44828 3.10345 0.0227986
3.44828 3.44828 -0.180486
3.44828 3.7931 -0.362522
3.44828 4.13793 -0.501877
3.44828 4.48276 -0.582144
3.44828 4.82759 -0.593875
3.44828 5.17241 -0.535687
3.44828 5.51724 -0.414431
3.44828 5.86207 -0.244384
3.44828 6.2069 -0.045564
3.44828 6.55172 0.15862
3.44828 6.89655 0.344129
3.44828 7.24138 0.489123
3.44828 7.58621 0.576532
3.44828 7.93103 0.596063
3.44828 8.27586 0.545419
3.44828 8.62069 0.430561
3.44828 8.96552 0.265013
3.44828 9.31034 0
3.44828 9.65517 0
3.44828 10 0
3.7931 0 0
3.7931 0.344828 0
3.7931 0.689655 0
3.7931 1.03448 1.03221
3.7931 1.37931 1.17886
3.7931 1.72414 1.18672
3.7931 2.06897 1.05486
3.7931 2.41379 0.798811
3.7931 2.75862 0.448716
3.7931 3.10345 0.0457929
3.7931 3.44828 -0.362522
3.7931 3.7931 -0.728156
3.7931 4.13793 -1.00806
3.7931 4.48276 -1.16929
3.7931 4.82759 -1.19285
3.7931 5.17241 -1.07597
3.7931 5.51724 -0.832421
3.7931 5.86207 -0.490865
3.7931 6.2069 -0.0915193
3.7931 6.55172 0.318602
3.7931 6.89655 0.691213
3.7931 7.24138 0.982446
3.7931 7.58621 1.15801
3.7931 7.93103 1.19724
3.7931 8.27586 1.09552
3.7931 8.62069 0.864819
3.7931 8.96552 0.5323
3.7931 9.31034 0
3.7931 9.65517 0
3.7931 10 0
4.13793 0 0
4.13793 0.344828 0
4.13793 0.689655 0
4.13793 1.03448 1.429
4.13793 1.37931 1.63202
4.13793 1.72414 1.6429
4.13793 2.06897 1.46035
4.13793 2.41379 1.10588
4.13793 2.75862 0.621205
4.13793 3.10345 0.063396
4.13793 3.44828 -0.501877
4.13793 3.7931 -1.00806
4.13793 4.13793 -1.39557
4.13793 4.48276 -1.61877
4.13793 4.82759 -1.65138
4.13793 5.17241 -1.48958
4.13793 5.51724 -1.15241
4.13793 5.86207 -0.679556
4.13793 6.2069 -0.1267
4.13793 6.55172 0.441074
4.13793 6.89655 0.956918
4.13793 7.24138 1.3601
4.13793 7.58621 1.60316
4.13793 7.93103 1.65747
4.13793 8.27586 1.51664
4.13793 8.62069 1.19726
4.13793 8.96552 0.736919
4.13793 9.31034 0
4.13793 9.65517 0
4.13793 10 0
4.48276 0 0
4.48276 0.344828 0
4.48276 0.689655 0
4.48276 1.03448 1.65755
4.48276 1.37931 1.89304
4.48276 1.72414 1.90565
4.48276 2.06897 1.69391
4.48276 2.41379 1.28275
4.48276 2.75862 0.720557
4.48276 3.10345 0.0735352
4.48276 3.44828 -0.582144
4.48276 3.7931 -1.16929
4.48276 4.13793 -1.61877
4.48276 4.48276 -1.87766
4.48276 4.82759 -1.9155
4.48276 5.17241 -1.72782
4.48276 5.51724 -1.33672
4.48276 5.86207 -0.788241
4.48276 6.2069 -0.146963
4.48276 6.55172 0.511617
4.48276 6.89655 1.10996
4.48276 7.24138 1.57763
4.48276 7.58621 1.85956
4.48276 7.93103 1.92256
4.48276 8.27586 1.75921
4.48276 8.62069 1.38874
4.48276 8.96552 0.854779
4.48276 9.31034 0
4.48276 9.65517 0
4.48276 10 0
4.82759 0 0
4.82759 0.344828 0
4.82759 0.689655 0
4.82759 1.03448 1.69095
4.82759 1.37931 1.93118
4.82759 1.72414 1.94405
4.82759 2.06897 1.72805
4.82759 2.41379 1.30859
4.82759 2.75862 0.735077
4.82759 3.10345 0.075017
4.82759 3.44828 -0.593875
4.82759 3.7931 -1.19285
4.82759 4.13793 -1.65138
4.82759 4.48276 -1.9155
4.82759 4.82759 -1.9541
4.82759 5.17241 -1.76264
4.82759 5.51724 -1.36365
4.82759 5.86207 -0.804125
4.82759 6.2069 -0.149925
4.82759 6.55172 0.521926
4.82759 6.89655 1.13233
4.82759 7.24138 1.60942
4.82759 7.58621 1.89703
4.82759 7.93103 1.9613
4.82759 8.27586 1.79466
4.82759 8.62069 1.41673
4.82759 8.96552 0.872003
4.82759 9.31034 0
4.82759 9.65517 0
4.82759 10 0
5.17241 0 0
5.17241 0.344828 0
5.17241 0.689655 0
5.17241 1.03448 1.52527
5.17241 1.37931 1.74196
5.17241 1.72414 1.75358
5.17241 2.06897 1.55873
5.17241 2.41379 1.18038
5.17241 2.75862 0.663054
5.17241 3.10345 0.0676668
5.17241 3.44828 -0.535687
5.17241 3.7931 -1.07597
5.17241 4.13793 -1.48958
5.17241 4.48276 -1.72782
5.17241 4.82759 -1.76264
5.17241 5.17241 -1.58993
5.17241 5.51724 -1.23004
5.17241 5.86207 -0.725337
5.17241 6.2069 -0.135235
5.17241 6.55172 0.470788
5.17241 6.89655 1.02138
5.17241 7.24138 1.45173
5.17241 7.58621 1.71116
5.17241 7.93103 1.76913
5.17241 8.27586 1.61882
5.17241 8.62069 1.27792
5.17241 8.96552 0.786564
5.17241 9.31034 0
5.17241 9.65517 0
5.17241 10 0
5.51724 0 0
5.51724 0.344828 0
5.51724 0.689655 0
5.51724 1.03448 1.18001
5.51724 1.37931 1.34766
5.51724 1.72414 1.35664
5.51724 2.06897 1.20591
5.51724 2.41379 0.913193
5.51724 2.75862 0.512968
5.51724 3.10345 0.0523501
5.51724 3.44828 -0.414431
5.51724 3.7931 -0.832421
5.51724 4.13793 -1.15241
5.51724 4.48276 -1.33672
5.51724 4.82759 -1.36365
5.51724 5.17241 -1.23004
5.51724 5.51724 -0.951616
5.51724 5.86207 -0.561153
5.51724 6.2069 -0.104624
5.51724 6.55172 0.364222
5.51724 6.89655 0.790188
5.51724 7.24138 1.12312
5.51724 7.58621 1.32383
5.51724 7.93103 1.36868
5.51724 8.27586 1.25239
5.51724 8.62069 0.988654
5.51724 8.96552 0.608521
5.51724 9.31034 0
5.51724 9.65517 0
5.51724 10 0
5.86207 0 0
5.86207 0.344828 0
5.86207 0.689655 0
5.86207 1.03448 0.695836
5.86207 1.37931 0.794695
5.86207 1.72414 0.799992
5.86207 2.06897 0.711104
5.86207 2.41379 0.538496
5.86207 2.75862 0.302489
5.86207 3.10345 0.03087
5.86207 3.44828 -0.244384
5.86207 3.7931 -0.490865
5.86207 4.13793 -0.679556
5.86207 4.48276 -0.788241
5.86207 4.82759 -0.804125
5.86207 5.17241 -0.725337
5.86207 5.51724 -0.561153
5.86207 5.86207 -0.330903
5.86207 6.2069 -0.0616951
5.86207 6.55172 0.214776
5.86207 6.89655 0.465961
5.86207 7.24138 0.662288
5.86207 7.58621 0.780641
5.86207 7.93103 0.807088
5.86207 8.27586 0.738514
5.86207 8.62069 0.582993
5.86207 8.96552 0.358835
5.86207 9.31034 0
5.86207 9.65517 0
5.86207 10 0
6.2069 0 0
6.2069 0.344828 0
6.2069 0.689655 0
6.2069 1.03448 0.129735
6.2069 1.37931 0.148167
6.2069 1.72414 0.149154
6.2069 2.06897 0.132582
6.2069 2.41379 0.1004
6.2069 2.75862 0.0563975
6.2069 3.10345 0.00575555
6.2069 3.44828 -0.045564
6.2069 3.7931 -0.0915193
6.2069 4.13793 -0.1267
6.2069 4.48276 -0.146963
6.2069 4.82759 -0.149925
6.2069 5.17241 -0.135235
6.2069 5.51724 -0.104624
6.2069 5.86207 -0.0616951
6.2069 6.2069 -0.0115027
6.2069 6.55172 0.0400439
6.2069 6.89655 0.086876
6.2069 7.24138 0.12348
6.2069 7.58621 0.145546
6.2069 7.93103 0.150477
6.2069 8.27586 0.137692
6.2069 8.62069 0.108696
6.2069 8.96552 0.0669029
6.2069 9.31034 0
6.2069 9.65517 0
6.2069 10 0
6.55172 0 0
6.55172 0.344828 0
6.55172 0.689655 0
6.55172 1.03448 -0.45164
6.55172 1.37931 -0.515805
6.55172 1.72414 -0.519244
6.55172 2.06897 -0.46155
6.55172 2.41379 -0.349517
6.55172 2.75862 -0.196334
6.55172 3.10345 -0.0200365
6.55172 3.44828 0.15862
6.55172 3.7931 0.318602
6.55172 4.13793 0.441074
6.55172 4.48276 0.511617
6.55172 4.82759 0.521926
6.55172 5.17241 0.470788
6.55172 5.51724 0.364222
6.55172 5.86207 0.214776
6.55172 6.2069 0.0400439
6.55172 6.55172 -0.139403
6.55172 6.89655 -0.302438
6.55172 7.24138 -0.429865
6.55172 7.58621 -0.506684
6.55172 7.93103 -0.52385
6.55172 8.27586 -0.479341
6.55172 8.62069 -0.378398
6.55172 8.96552 -0.232906
6.55172 9.31034 0
6.55172 9.65517 0
6.55172 10 0
6.89655 0 0
6.89655 0.344828 0
6.89655 0.689655 0
6.89655 1.03448 -0.979843
6.89655 1.37931 -1.11905
6.89655 1.72414 -1.12651
6.89655 2.06897 -1.00134
6.89655 2.41379 -0.758283
6.89655 2.75862 -0.425951
6.89655 3.10345 -0.0434696
6.89655 3.44828 0.344129
6.89655 3.7931 0.691213
6.89655 4.13793 0.956918
6.89655 4.48276 1.10996
6.89655 4.82759 1.13233
6.89655 5.17241 1.02138
6.89655 5.51724 0.790188
6.89655 5.86207 0.465961
6.89655 6.2069 0.086876
6.89655 6.55172 -0.302438
6.89655 6.89655 -0.656144
6.89655 7.24138 -0.932602
6.89655 7.58621 -1.09926
6.89655 7.93103 -1.1365
6.89655 8.27586 -1.03994
6.89655 8.62069 -0.820943
6.89655 8.96552 -0.505294
6.89655 9.31034 0
6.89655 9.65517 0
6.89655 10 0
7.24138 0 0
7.24138 0.344828 0
7.24138 0.689655 0
7.24138 1.03448 -1.39269
7.24138 1.37931 -1.59055
7.24138 1.72414 -1.60115
7.24138 2.06897 -1.42324
7.24138 2.41379 -1.07778
7.24138 2.75862 -0.605419
7.24138 3.10345 -0.061785
7.24138 3.44828 0.489123
7.24138 3.7931 0.982446
7.24138 4.13793 1.3601
7.24138 4.48276 1.57763
7.24138 4.82759 1.60942
7.24138 5.17241 1.45173
7.24138 5.51724 1.12312
7.24138 5.86207 0.662288
7.24138 6.2069 0.12348
7.24138 6.55172 -0.429865
7.24138 6.89655 -0.932602
7.24138 7.24138 -1.32554
7.24138 7.58621 -1.56242
7.24138 7.93103 -1.61535
7.24138 8.27586 -1.4781
7.24138 8.62069 -1.16684
7.24138 8.96552 -0.718193
7.24138 9.31034 0
7.24138 9.65517 0
7.24138 10 0
7.58621 0 0
7.58621 0.344828 0
7.58621 0.689655 0
7.58621 1.03448 -1.64156
7.58621 1.37931 -1.87478
7.58621 1.72414 -1.88728
7.58621 2.06897 -1.67758
7.58621 2.41379 -1.27038
7.58621 2.75862 -0.71361
7.58621 3.10345 -0.0728262
7.58621 3.44828 0.576532
7.58621 3.7931 1.15801
7.58621 4.13793 1.60316
7.58621 4.48276 1.85956
7.58621 4.82759 1.89703
7.58621 5.17241 1.71116
7.58621 5.51724 1.32383
7.58621 5.86207 0.780641
7.58621 6.2069 0.145546
7.58621 6.55172 -0.506684
7.58621 6.89655 -1.09926
7.58621 7.24138 -1.56242
7.58621 7.58621 -1.84163
7.58621 7.93103 -1.90402
7.58621 8.27586 -1.74225
7.58621 8.62069 -1.37535
7.58621 8.96552 -0.846537
7.58621 9.31034 0
7.58621 9.65517 0
7.58621 10 0
7.93103 0 0
7.93103 0.344828 0
7.93103 0.689655 0
7.93103 1.03448 -1.69718
7.93103 1.37931 -1.9383
7.93103 1.72414 -1.95122
7.93103 2.06897 -1.73442
7.93103 2.41379 -1.31342
7.93103 2.75862 -0.737786
7.93103 3.10345 -0.0752934
7.93103 3.44828 0.596063
7.93103 3.7931 1.19724
7.93103 4.13793 1.65747
7.93103 4.48276 1.92256
7.93103 4.82759 1.9613
7.93103 5.17241 1.76913
7.93103 5.51724 1.36868
7.93103 5.86207 0.807088
7.93103 6.2069 0.150477
7.93103 6.55172 -0.52385
7.93103 6.89655 -1.1365
7.93103 7.24138 -1.61535
7.93103 7.58621 -1.90402
7.93103 7.93103 -1.96853
7.93103 8.27586 -1.80127
7.93103 8.62069 -1.42195
7.93103 8.96552 -0.875216
7.93103 9.31034 0
7.93103 9.65517 0
7.93103 10 0
8.27586 0 0
8.27586 0.344828 0
8.27586 0.689655 0
8.27586 1.03448 -1.55298
8.27586 1.37931 -1.77361
8.27586 1.72414 -1.78543
8.27586 2.06897 -1.58705
8.27586 2.41379 -1.20182
8.27586 2.75862 -0.6751
8.27586 3.10345 -0.0688962
8.27586 3.44828 0.545419
8.27586 3.7931 1.09552
8.27586 4.13793 1.51664
8.27586 4.48276 1.75921
8.27586 4.82759 1.79466
8.27586 5.17241 1.61882
8.27586 5.51724 1.25239
8.27586 5.86207 0.738514
8.27586 6.2069 0.137692
8.27586 6.55172 -0.479341
8.27586 6.89655 -1.03994
8.27586 7.24138 -1.4781
8.27586 7.58621 -1.74225
8.27586 7.93103 -1.80127
8.27586 8.27586 -1.64823
8.27586 8.62069 -1.30113
8.27586 8.96552 -0.800854
8.27586 9.31034 0
8.27586 9.65517 0
8.27586 10 0
8.62069 0 0
8.62069 0.344828 0
8.62069 0.689655 0
8.62069 1.03448 -1.22594
8.62069 1.37931 -1.40011
8.62069 1.72414 -1.40945
8.62069 2.06897 -1.25284
8.62069 2.41379 -0.948736
8.62069 2.75862 -0.532933
8.62069 3.10345 -0.0543876
8.62069 3.44828 0.430561
8.62069 3.7931 0.864819
8.62069 4.13793 1.19726
8.62069 4.48276 1.38874
8.62069 4.82759 1.41673
8.62069 5.17241 1.27792
8.62069 5.51724 0.988654
8.62069 5.86207 0.582993
8.62069 6.2069 0.108696
8.62069 6.55172 -0.378398
8.62069 6.89655 -0.820943
8.62069 7.24138 -1.16684
8.62069 7.58621 -1.37535
8.62069 7.93103 -1.42195
8.62069 8.27586 -1.30113
8.62069 8.62069 -1.02713
8.62069 8.96552 -0.632205
8.62069 9.31034 0
8.62069 9.65517 0
8.62069 10 0
8.96552 0 0
8.96552 0.344828 0
8.96552 0.689655 0
8.96552 1.03448 -0.754573
8.96552 1.37931 -0.861777
8.96552 1.72414 -0.867521
8.96552 2.06897 -0.77113
8.96552 2.41379 -0.583951
8.96552 2.75862 -0.328023
8.96552 3.10345 -0.0334758
8.96552 3.44828 0.265013
8.96552 3.7931 0.5323
8.96552 4.13793 0.736919
8.96552 4.48276 0.854779
8.96552 4.82759 0.872003
8.96552 5.17241 0.786564
8.96552 5.51724 0.608521
8.96552 5.86207 0.358835
8.96552 6.2069 0.0669029
8.96552 6.55172 -0.232906
8.96552 6.89655 -0.505294
8.96552 7.24138 -0.718193
8.96552 7.58621 -0.846537
8.96552 7.93103 -0.875216
8.96552 8.27586 -0.800854
8.96552 8.62069 -0.632205
8.96552 8.96552 -0.389125
8.96552 9.31034 0
8.96552 9.65517 0
8.96552 10 0
9.31034 0 0
9.31034 0.344828 0
9.31034 0.689655 0
9.31034 1.03448 0
9.31034 1.37931 0
9.31034 1.72414 0
9.31034 2.06897 0
9.31034 2.41379 0
9.31034 2.75862 0
9.31034 3.10345 0
9.31034 3.44828 0
9.31034 3.7931 0
9.31034 4.13793 0
9.31034 4.48276 0
9.31034 4.82759 0
9.31034 5.17241 0
9.31034 5.51724 0
9.31034 5.86207 0
9.31034 6.2069 0
9.31034 6.55172 0
9.31034 6.89655 0
9.31034 7.24138 0
9.31034 7.58621 0
9.31034 7.93103 0
9.31034 8.27586 0
9.31034 8.62069 0
9.31034 8.96552 0
9.31034 9.31034 0
9.31034 9.65517 0
9.31034 10 0
9.65517 0 0
9.65517 0.344828 0
9.65517 0.689655 0
9.65517 1.03448 0
9.65517 1.37931 0
9.65517 1.72414 0
9.65517 2.06897 0
9.65517 2.41379 0
9.65517 2.75862 0
9.65517 3.10345 0
9.65517 3.44828 0
9.65517 3.7931 0
9.65517 4.13793 0
9.65517 4.48276 0
9.65517 4.82759 0
9.65517 5.17241 0
9.65517 5.51724 0
9.65517 5.86207 0
9.65517 6.2069 0
9.65517 6.55172 0
9.65517 6.89655 0
9.65517 7.24138 0
9.65517 7.58621 0
9.65517 7.93103 0
9.65517 8.27586 0
9.65517 8.62069 0
9.65517 8.96552 0
9.65517 9.31034 0
9.65517 9.65517 0
9.65517 10 0
10 0 0
10 0.344828 0
10 0.689655 0
10 1.03448 0
10 1.37931 0
10 1.72414 0
10 2.06897 0
10 2.41379 0
10 2.75862 0
10 3.10345 0
10 3.44828 0
10 3.7931 0
10 4.13793 0
10 4.48276 0
10 4.82759 0
10 5.17241 0
10 5.51724 0
10 5.86207 0
10 6.2069 0
10 6.55172 0
10 6.89655 0
10 7.24138 0
10 7.58621 0
10 7.93103 0
10 8.27586 0
10 8.62069 0
10 8.96552 0
10 9.31034 0
10 9.65517 0
10 10 0
POINT_DATA 900
SCALARS height float 1
LOOKUP_TABLE default
0
0
0
0
0
0
0
0
0
0
0
0
0
0
0
0
0
0
0
0
0
0
0
0
0
0
0
0
0
0
0
0
0
0
0
0
0
0
0
0
0
0
0
0
0
0
0
0
0
0
0
0
0
0
0
0
0
0
0
0
0
0
0
0
0
0
0
0
0
0
0
0
0
0
0
0
0
0
0
0
0
0
0
0
0
0
0
0
0
0
0
0
0
-1.46323
-1.67112
-1.68225
-1.49534
-1.13237
-0.636087
-0.0649147
0.5139
1.03221
1.429
1.65755
1.69095
1.52527
1.18001
0.695836
0.129735
-0.45164
-0.979843
-1.39269
-1.64156
-1.69718
-1.55298
-1.22594
-0.754573
0
0
0
0
0
0
-1.67112
-1.90853
-1.92126
-1.70778
-1.29325
-0.726456
-0.0741372
0.58691
1.17886
1.63202
1.89304
1.93118
1.74196
1.34766
0.794695
0.148167
-0.515805
-1.11905
-1.59055
-1.87478
-1.9383
-1.77361
-1.40011
-0.861777
0
0
0
0
0
0
-1.68225
-1.92126
-1.93406
-1.71917
-1.30187
-0.731299
-0.0746314
0.590822
1.18672
1.6429
1.90565
1.94405
1.75358
1.35664
0.799992
0.149154
-0.519244
-1.12651
-1.60115
-1.88728
-1.95122
-1.78543
-1.40945
-0.867521
0
0
0
0
0
0
-1.49534
-1.70778
-1.71917
-1.52815
-1.15722
-0.650043
-0.066339
0.525175
1.05486
1.46035
1.69391
1.72805
1.55873
1.20591
0.711104
0.132582
-0.46155
-1.00134
-1.42324
-1.67758
-1.73442
-1.58705
-1.25284
-0.77113
0
0
0
0
0
0
-1.13237
-1.29325
-1.30187
-1.15722
-0.876322
-0.492257
-0.0502364
0.397698
0.798811
1.10588
1.28275
1.30859
1.18038
0.913193
0.538496
0.1004
-0.349517
-0.758283
-1.07778
-1.27038
-1.31342
-1.20182
-0.948736
-0.583951
0
0
0
0
0
0
-0.636087
-0.726456
-0.731299
-0.650043
-0.492257
-0.276515
-0.0282193
0.223399
0.448716
0.621205
0.720557
0.735077
0.663054
0.512968
0.302489
0.0563975
-0.196334
-0.425951
-0.605419
-0.71361
-0.737786
-0.6751
-0.532933
-0.328023
0
0
0
0
0
0
-0.0649147
-0.0741372
-0.0746314
-0.066339
-0.0502364
-0.0282193
-0.00287987
0.0227986
0.0457929
0.063396
0.0735352
0.075017
0.0676668
0.0523501
0.03087
0.00575555
-0.0200365
-0.0434696
-0.061785
-0.0728262
-0.0752934
-0.0688962
-0.0543876
-0.0334758
0
0
0
0
0
0
0.5139
0.58691
0.590822
0.525175
0.397698
0.223399
0.0227986
-0.180486
-0.362522
-0.501877
-0.582144
-0.593875
-0.535687
-0.414431
-0.244384
-0.045564
0.15862
0.344129
0.489123
0.576532
0.596063
0.545419
0.430561
0.265013
0
0
0
0
0
0
1.03221
1.17886
1.18672
1.05486
0.798811
0.448716
0.0457929
-0.362522
-0.728156
-1.00806
-1.16929
-1.19285
-1.07597
-0.832421
-0.490865
-0.0915193
0.318602
0.691213
0.982446
1.15801
1.19724
1.09552
0.864819
0.5323
0
0
0
0
0
0
1.429
1.63202
1.6429
1.46035
1.10588
0.621205
0.063396
-0.501877
-1.00806
-1.39557
-1.61877
-1.65138
-1.48958
-1.15241
-0.679556
-0.1267
0.441074
0.956918
1.3601
1.60316
1.65747
1.51664
1.19726
0.736919
0
0
0
0
0
0
1.65755
1.89304
1.90565
1.69391
1.28275
0.720557
0.0735352
-0.582144
-1.16929
-1.61877
-1.87766
-1.9155
-1.72782
-1.33672
-0.788241
-0.146963
0.511617
1.10996
1.57763
1.85956
1.92256
1.75921
1.38874
0.854779
0
0
0
0
0
0
1.69095
1.93118
1.94405
1.72805
1.30859
0.735077
0.075017
-0.593875
-1.19285
-1.65138
-1.9155
-1.9541
-1.76264
-1.36365
-0.804125
-0.149925
0.521926
1.13233
1.60942
1.89703
1.9613
1.79466
1.41673
0.872003
0
0
0
0
0
0
1.52527
1.74196
1.75358
1.55873
1.18038
0.663054
0.0676668
-0.535687
-1.07597
-1.48958
-1.72782
-1.76264
-1.58993
-1.23004
-0.725337
-0.135235
0.470788
1.02138
1.45173
1.71116
1.76913
1.61882
1.27792
0.786564
0
0
0
0
0
0
1.18001
1.34766
1.35664
1.20591
0.913193
0.512968
0.0523501
-0.414431
-0.832421
-1.15241
-1.33672
-1.36365
-1.23004
-0.951616
-0.561153
-0.104624
0.364222
0.790188
1.12312
1.32383
1.36868
1.25239
0.988654
0.608521
0
0
0
0
0
0
0.695836
0.794695
0.799992
0.711104
0.538496
0.302489
0.03087
-0.244384
-0.490865
-0.679556
-0.788241
-0.804125
-0.725337
-0.561153
-0.330903
-0.0616951
0.214776
0.465961
0.662288
0.780641
0.807088
0.738514
0.582993
0.358835
0
0
0
0
0
0
0.129735
0.148167
0.149154
0.132582
0.1004
0.0563975
0.00575555
-0.045564
-0.0915193
-0.1267
-0.146963
-0.149925
-0.135235
-0.104624
-0.0616951
-0.0115027
0.0400439
0.086876
0.12348
0.145546
0.150477
0.137692
0.108696
0.0669029
0
0
0
0
0
0
-0.45164
-0.515805
-0.519244
-0.46155
-0.349517
-0.196334
-0.0200365
0.15862
0.318602
0.441074
0.511617
0.521926
0.470788
0.364222
0.214776
0.0400439
-0.139403
-0.302438
-0.429865
-0.506684
-0.52385
-0.479341
-0.378398
-0.232906
0
0
0
0
0
0
-0.979843
-1.11905
-1.12651
-1.00134
-0.758283
-0.425951
-0.0434696
0.344129
0.691213
0.956918
1.10996
1.13233
1.02138
0.790188
0.465961
0.086876
-0.302438
-0.656144
-0.932602
-1.09926
-1.1365
-1.03994
-0.820943
-0.505294
0
0
0
0
0
0
-1.39269
-1.59055
-1.60115
-1.42324
-1.07778
-0.605419
-0.061785
0.489123
0.982446
1.3601
1.57763
1.60942
1.45173
1.12312
0.662288
0.12348
-0.429865
-0.932602
-1.32554
-1.56242
-1.61535
-1.4781
-1.16684
-0.718193
0
0
0
0
0
0
-1.64156
-1.87478
-1.88728
-1.67758
-1.27038
-0.71361
-0.0728262
0.576532
1.15801
1.60316
1.85956
1.89703
1.71116
1.32383
0.780641
0.145546
-0.506684
-1.09926
-1.56242
-1.84163
-1.90402
-1.74225
-1.37535
-0.846537
0
0
0
0
0
0
-1.69718
-1.9383
-1.95122
-1.73442
-1.31342
-0.737786
-0.0752934
0.596063
1.19724
1.65747
1.92256
1.9613
1.76913
1.36868
0.807088
0.150477
-0.52385
-1.1365
-1.61535
-1.90402
-1.96853
-1.80127
-1.42195
-0.875216
0
0
0
0
0
0
-1.55298
-1.77361
-1.78543
-1.58705
-1.20182
-0.6751
-0.0688962
0.545419
1.09552
1.51664
1.75921
1.79466
1.61882
1.25239
0.738514
0.137692
-0.479341
-1.03994
-1.4781
-1.74225
-1.80127
-1.64823
-1.30113
-0.800854
0
0
0
0
0
0
-1.22594
-1.40011
-1.40945
-1.25284
-0.948736
-0.532933
-0.0543876
0.430561
0.864819
1.19726
1.38874
1.41673
1.27792
0.988654
0.582993
0.108696
-0.378398
-0.820943
-1.16684
-1.37535
-1.42195
-1.30113
-1.02713
-0.632205
0
0
0
0
0
0
-0.754573
-0.861777
-0.867521
-0.77113
-0.583951
-0.328023
-0.0334758
0.265013
0.5323
0.736919
0.854779
0.872003
0.786564
0.608521
0.358835
0.0669029
-0.232906
-0.505294
-0.718193
-0.846537
-0.875216
-0.800854
-0.632205
-0.389125
0
0
0
0
0
0
0
0
0
0
0
0
0
0
0
0
0
0
0
0
0
0
0
0
0
0
0
0
0
0
0
0
0
0
0
0
0
0
0
0
0
0
0
0
0
0
0
0
0
0
0
0
0
0
0
0
0
0
0
0
0
0
0
0
0
0
0
0
0
0
0
0
0
0
0
0
0
0
0
0
0
0
0
0
0
0
0
0
0
0
0
0
0
